TITLE = "FVM Results"
VARIABLES = "X", "Y", "T", "U_X", "U_Y"
ZONE T="InternalField", NODES=2601, ELEMENTS=2500, DATAPACKING=BLOCK, ZONETYPE=FEQUADRILATERAL, VARLOCATION=([3-5]=CELLCENTERED), STRANDID=1, SOLUTIONTIME=50
0 0.02 0.04 0.06 0.08 0.1 0.12 0.14 0.16 0.18
0.2 0.22 0.24 0.26 0.28 0.3 0.32 0.34 0.36 0.38
0.4 0.42 0.44 0.46 0.48 0.5 0.52 0.54 0.56 0.58
0.6 0.62 0.64 0.66 0.68 0.7 0.72 0.74 0.76 0.78
0.8 0.82 0.84 0.86 0.88 0.9 0.92 0.94 0.96 0.98
1 0 0.02 0.04 0.06 0.08 0.1 0.12 0.14 0.16
0.18 0.2 0.22 0.24 0.26 0.28 0.3 0.32 0.34 0.36
0.38 0.4 0.42 0.44 0.46 0.48 0.5 0.52 0.54 0.56
0.58 0.6 0.62 0.64 0.66 0.68 0.7 0.72 0.74 0.76
0.78 0.8 0.82 0.84 0.86 0.88 0.9 0.92 0.94 0.96
0.98 1 0 0.02 0.04 0.06 0.08 0.1 0.12 0.14
0.16 0.18 0.2 0.22 0.24 0.26 0.28 0.3 0.32 0.34
0.36 0.38 0.4 0.42 0.44 0.46 0.48 0.5 0.52 0.54
0.56 0.58 0.6 0.62 0.64 0.66 0.68 0.7 0.72 0.74
0.76 0.78 0.8 0.82 0.84 0.86 0.88 0.9 0.92 0.94
0.96 0.98 1 0 0.02 0.04 0.06 0.08 0.1 0.12
0.14 0.16 0.18 0.2 0.22 0.24 0.26 0.28 0.3 0.32
0.34 0.36 0.38 0.4 0.42 0.44 0.46 0.48 0.5 0.52
0.54 0.56 0.58 0.6 0.62 0.64 0.66 0.68 0.7 0.72
0.74 0.76 0.78 0.8 0.82 0.84 0.86 0.88 0.9 0.92
0.94 0.96 0.98 1 0 0.02 0.04 0.06 0.08 0.1
0.12 0.14 0.16 0.18 0.2 0.22 0.24 0.26 0.28 0.3
0.32 0.34 0.36 0.38 0.4 0.42 0.44 0.46 0.48 0.5
0.52 0.54 0.56 0.58 0.6 0.62 0.64 0.66 0.68 0.7
0.72 0.74 0.76 0.78 0.8 0.82 0.84 0.86 0.88 0.9
0.92 0.94 0.96 0.98 1 0 0.02 0.04 0.06 0.08
0.1 0.12 0.14 0.16 0.18 0.2 0.22 0.24 0.26 0.28
0.3 0.32 0.34 0.36 0.38 0.4 0.42 0.44 0.46 0.48
0.5 0.52 0.54 0.56 0.58 0.6 0.62 0.64 0.66 0.68
0.7 0.72 0.74 0.76 0.78 0.8 0.82 0.84 0.86 0.88
0.9 0.92 0.94 0.96 0.98 1 0 0.02 0.04 0.06
0.08 0.1 0.12 0.14 0.16 0.18 0.2 0.22 0.24 0.26
0.28 0.3 0.32 0.34 0.36 0.38 0.4 0.42 0.44 0.46
0.48 0.5 0.52 0.54 0.56 0.58 0.6 0.62 0.64 0.66
0.68 0.7 0.72 0.74 0.76 0.78 0.8 0.82 0.84 0.86
0.88 0.9 0.92 0.94 0.96 0.98 1 0 0.02 0.04
0.06 0.08 0.1 0.12 0.14 0.16 0.18 0.2 0.22 0.24
0.26 0.28 0.3 0.32 0.34 0.36 0.38 0.4 0.42 0.44
0.46 0.48 0.5 0.52 0.54 0.56 0.58 0.6 0.62 0.64
0.66 0.68 0.7 0.72 0.74 0.76 0.78 0.8 0.82 0.84
0.86 0.88 0.9 0.92 0.94 0.96 0.98 1 0 0.02
0.04 0.06 0.08 0.1 0.12 0.14 0.16 0.18 0.2 0.22
0.24 0.26 0.28 0.3 0.32 0.34 0.36 0.38 0.4 0.42
0.44 0.46 0.48 0.5 0.52 0.54 0.56 0.58 0.6 0.62
0.64 0.66 0.68 0.7 0.72 0.74 0.76 0.78 0.8 0.82
0.84 0.86 0.88 0.9 0.92 0.94 0.96 0.98 1 0
0.02 0.04 0.06 0.08 0.1 0.12 0.14 0.16 0.18 0.2
0.22 0.24 0.26 0.28 0.3 0.32 0.34 0.36 0.38 0.4
0.42 0.44 0.46 0.48 0.5 0.52 0.54 0.56 0.58 0.6
0.62 0.64 0.66 0.68 0.7 0.72 0.74 0.76 0.78 0.8
0.82 0.84 0.86 0.88 0.9 0.92 0.94 0.96 0.98 1
0 0.02 0.04 0.06 0.08 0.1 0.12 0.14 0.16 0.18
0.2 0.22 0.24 0.26 0.28 0.3 0.32 0.34 0.36 0.38
0.4 0.42 0.44 0.46 0.48 0.5 0.52 0.54 0.56 0.58
0.6 0.62 0.64 0.66 0.68 0.7 0.72 0.74 0.76 0.78
0.8 0.82 0.84 0.86 0.88 0.9 0.92 0.94 0.96 0.98
1 0 0.02 0.04 0.06 0.08 0.1 0.12 0.14 0.16
0.18 0.2 0.22 0.24 0.26 0.28 0.3 0.32 0.34 0.36
0.38 0.4 0.42 0.44 0.46 0.48 0.5 0.52 0.54 0.56
0.58 0.6 0.62 0.64 0.66 0.68 0.7 0.72 0.74 0.76
0.78 0.8 0.82 0.84 0.86 0.88 0.9 0.92 0.94 0.96
0.98 1 0 0.02 0.04 0.06 0.08 0.1 0.12 0.14
0.16 0.18 0.2 0.22 0.24 0.26 0.28 0.3 0.32 0.34
0.36 0.38 0.4 0.42 0.44 0.46 0.48 0.5 0.52 0.54
0.56 0.58 0.6 0.62 0.64 0.66 0.68 0.7 0.72 0.74
0.76 0.78 0.8 0.82 0.84 0.86 0.88 0.9 0.92 0.94
0.96 0.98 1 0 0.02 0.04 0.06 0.08 0.1 0.12
0.14 0.16 0.18 0.2 0.22 0.24 0.26 0.28 0.3 0.32
0.34 0.36 0.38 0.4 0.42 0.44 0.46 0.48 0.5 0.52
0.54 0.56 0.58 0.6 0.62 0.64 0.66 0.68 0.7 0.72
0.74 0.76 0.78 0.8 0.82 0.84 0.86 0.88 0.9 0.92
0.94 0.96 0.98 1 0 0.02 0.04 0.06 0.08 0.1
0.12 0.14 0.16 0.18 0.2 0.22 0.24 0.26 0.28 0.3
0.32 0.34 0.36 0.38 0.4 0.42 0.44 0.46 0.48 0.5
0.52 0.54 0.56 0.58 0.6 0.62 0.64 0.66 0.68 0.7
0.72 0.74 0.76 0.78 0.8 0.82 0.84 0.86 0.88 0.9
0.92 0.94 0.96 0.98 1 0 0.02 0.04 0.06 0.08
0.1 0.12 0.14 0.16 0.18 0.2 0.22 0.24 0.26 0.28
0.3 0.32 0.34 0.36 0.38 0.4 0.42 0.44 0.46 0.48
0.5 0.52 0.54 0.56 0.58 0.6 0.62 0.64 0.66 0.68
0.7 0.72 0.74 0.76 0.78 0.8 0.82 0.84 0.86 0.88
0.9 0.92 0.94 0.96 0.98 1 0 0.02 0.04 0.06
0.08 0.1 0.12 0.14 0.16 0.18 0.2 0.22 0.24 0.26
0.28 0.3 0.32 0.34 0.36 0.38 0.4 0.42 0.44 0.46
0.48 0.5 0.52 0.54 0.56 0.58 0.6 0.62 0.64 0.66
0.68 0.7 0.72 0.74 0.76 0.78 0.8 0.82 0.84 0.86
0.88 0.9 0.92 0.94 0.96 0.98 1 0 0.02 0.04
0.06 0.08 0.1 0.12 0.14 0.16 0.18 0.2 0.22 0.24
0.26 0.28 0.3 0.32 0.34 0.36 0.38 0.4 0.42 0.44
0.46 0.48 0.5 0.52 0.54 0.56 0.58 0.6 0.62 0.64
0.66 0.68 0.7 0.72 0.74 0.76 0.78 0.8 0.82 0.84
0.86 0.88 0.9 0.92 0.94 0.96 0.98 1 0 0.02
0.04 0.06 0.08 0.1 0.12 0.14 0.16 0.18 0.2 0.22
0.24 0.26 0.28 0.3 0.32 0.34 0.36 0.38 0.4 0.42
0.44 0.46 0.48 0.5 0.52 0.54 0.56 0.58 0.6 0.62
0.64 0.66 0.68 0.7 0.72 0.74 0.76 0.78 0.8 0.82
0.84 0.86 0.88 0.9 0.92 0.94 0.96 0.98 1 0
0.02 0.04 0.06 0.08 0.1 0.12 0.14 0.16 0.18 0.2
0.22 0.24 0.26 0.28 0.3 0.32 0.34 0.36 0.38 0.4
0.42 0.44 0.46 0.48 0.5 0.52 0.54 0.56 0.58 0.6
0.62 0.64 0.66 0.68 0.7 0.72 0.74 0.76 0.78 0.8
0.82 0.84 0.86 0.88 0.9 0.92 0.94 0.96 0.98 1
0 0.02 0.04 0.06 0.08 0.1 0.12 0.14 0.16 0.18
0.2 0.22 0.24 0.26 0.28 0.3 0.32 0.34 0.36 0.38
0.4 0.42 0.44 0.46 0.48 0.5 0.52 0.54 0.56 0.58
0.6 0.62 0.64 0.66 0.68 0.7 0.72 0.74 0.76 0.78
0.8 0.82 0.84 0.86 0.88 0.9 0.92 0.94 0.96 0.98
1 0 0.02 0.04 0.06 0.08 0.1 0.12 0.14 0.16
0.18 0.2 0.22 0.24 0.26 0.28 0.3 0.32 0.34 0.36
0.38 0.4 0.42 0.44 0.46 0.48 0.5 0.52 0.54 0.56
0.58 0.6 0.62 0.64 0.66 0.68 0.7 0.72 0.74 0.76
0.78 0.8 0.82 0.84 0.86 0.88 0.9 0.92 0.94 0.96
0.98 1 0 0.02 0.04 0.06 0.08 0.1 0.12 0.14
0.16 0.18 0.2 0.22 0.24 0.26 0.28 0.3 0.32 0.34
0.36 0.38 0.4 0.42 0.44 0.46 0.48 0.5 0.52 0.54
0.56 0.58 0.6 0.62 0.64 0.66 0.68 0.7 0.72 0.74
0.76 0.78 0.8 0.82 0.84 0.86 0.88 0.9 0.92 0.94
0.96 0.98 1 0 0.02 0.04 0.06 0.08 0.1 0.12
0.14 0.16 0.18 0.2 0.22 0.24 0.26 0.28 0.3 0.32
0.34 0.36 0.38 0.4 0.42 0.44 0.46 0.48 0.5 0.52
0.54 0.56 0.58 0.6 0.62 0.64 0.66 0.68 0.7 0.72
0.74 0.76 0.78 0.8 0.82 0.84 0.86 0.88 0.9 0.92
0.94 0.96 0.98 1 0 0.02 0.04 0.06 0.08 0.1
0.12 0.14 0.16 0.18 0.2 0.22 0.24 0.26 0.28 0.3
0.32 0.34 0.36 0.38 0.4 0.42 0.44 0.46 0.48 0.5
0.52 0.54 0.56 0.58 0.6 0.62 0.64 0.66 0.68 0.7
0.72 0.74 0.76 0.78 0.8 0.82 0.84 0.86 0.88 0.9
0.92 0.94 0.96 0.98 1 0 0.02 0.04 0.06 0.08
0.1 0.12 0.14 0.16 0.18 0.2 0.22 0.24 0.26 0.28
0.3 0.32 0.34 0.36 0.38 0.4 0.42 0.44 0.46 0.48
0.5 0.52 0.54 0.56 0.58 0.6 0.62 0.64 0.66 0.68
0.7 0.72 0.74 0.76 0.78 0.8 0.82 0.84 0.86 0.88
0.9 0.92 0.94 0.96 0.98 1 0 0.02 0.04 0.06
0.08 0.1 0.12 0.14 0.16 0.18 0.2 0.22 0.24 0.26
0.28 0.3 0.32 0.34 0.36 0.38 0.4 0.42 0.44 0.46
0.48 0.5 0.52 0.54 0.56 0.58 0.6 0.62 0.64 0.66
0.68 0.7 0.72 0.74 0.76 0.78 0.8 0.82 0.84 0.86
0.88 0.9 0.92 0.94 0.96 0.98 1 0 0.02 0.04
0.06 0.08 0.1 0.12 0.14 0.16 0.18 0.2 0.22 0.24
0.26 0.28 0.3 0.32 0.34 0.36 0.38 0.4 0.42 0.44
0.46 0.48 0.5 0.52 0.54 0.56 0.58 0.6 0.62 0.64
0.66 0.68 0.7 0.72 0.74 0.76 0.78 0.8 0.82 0.84
0.86 0.88 0.9 0.92 0.94 0.96 0.98 1 0 0.02
0.04 0.06 0.08 0.1 0.12 0.14 0.16 0.18 0.2 0.22
0.24 0.26 0.28 0.3 0.32 0.34 0.36 0.38 0.4 0.42
0.44 0.46 0.48 0.5 0.52 0.54 0.56 0.58 0.6 0.62
0.64 0.66 0.68 0.7 0.72 0.74 0.76 0.78 0.8 0.82
0.84 0.86 0.88 0.9 0.92 0.94 0.96 0.98 1 0
0.02 0.04 0.06 0.08 0.1 0.12 0.14 0.16 0.18 0.2
0.22 0.24 0.26 0.28 0.3 0.32 0.34 0.36 0.38 0.4
0.42 0.44 0.46 0.48 0.5 0.52 0.54 0.56 0.58 0.6
0.62 0.64 0.66 0.68 0.7 0.72 0.74 0.76 0.78 0.8
0.82 0.84 0.86 0.88 0.9 0.92 0.94 0.96 0.98 1
0 0.02 0.04 0.06 0.08 0.1 0.12 0.14 0.16 0.18
0.2 0.22 0.24 0.26 0.28 0.3 0.32 0.34 0.36 0.38
0.4 0.42 0.44 0.46 0.48 0.5 0.52 0.54 0.56 0.58
0.6 0.62 0.64 0.66 0.68 0.7 0.72 0.74 0.76 0.78
0.8 0.82 0.84 0.86 0.88 0.9 0.92 0.94 0.96 0.98
1 0 0.02 0.04 0.06 0.08 0.1 0.12 0.14 0.16
0.18 0.2 0.22 0.24 0.26 0.28 0.3 0.32 0.34 0.36
0.38 0.4 0.42 0.44 0.46 0.48 0.5 0.52 0.54 0.56
0.58 0.6 0.62 0.64 0.66 0.68 0.7 0.72 0.74 0.76
0.78 0.8 0.82 0.84 0.86 0.88 0.9 0.92 0.94 0.96
0.98 1 0 0.02 0.04 0.06 0.08 0.1 0.12 0.14
0.16 0.18 0.2 0.22 0.24 0.26 0.28 0.3 0.32 0.34
0.36 0.38 0.4 0.42 0.44 0.46 0.48 0.5 0.52 0.54
0.56 0.58 0.6 0.62 0.64 0.66 0.68 0.7 0.72 0.74
0.76 0.78 0.8 0.82 0.84 0.86 0.88 0.9 0.92 0.94
0.96 0.98 1 0 0.02 0.04 0.06 0.08 0.1 0.12
0.14 0.16 0.18 0.2 0.22 0.24 0.26 0.28 0.3 0.32
0.34 0.36 0.38 0.4 0.42 0.44 0.46 0.48 0.5 0.52
0.54 0.56 0.58 0.6 0.62 0.64 0.66 0.68 0.7 0.72
0.74 0.76 0.78 0.8 0.82 0.84 0.86 0.88 0.9 0.92
0.94 0.96 0.98 1 0 0.02 0.04 0.06 0.08 0.1
0.12 0.14 0.16 0.18 0.2 0.22 0.24 0.26 0.28 0.3
0.32 0.34 0.36 0.38 0.4 0.42 0.44 0.46 0.48 0.5
0.52 0.54 0.56 0.58 0.6 0.62 0.64 0.66 0.68 0.7
0.72 0.74 0.76 0.78 0.8 0.82 0.84 0.86 0.88 0.9
0.92 0.94 0.96 0.98 1 0 0.02 0.04 0.06 0.08
0.1 0.12 0.14 0.16 0.18 0.2 0.22 0.24 0.26 0.28
0.3 0.32 0.34 0.36 0.38 0.4 0.42 0.44 0.46 0.48
0.5 0.52 0.54 0.56 0.58 0.6 0.62 0.64 0.66 0.68
0.7 0.72 0.74 0.76 0.78 0.8 0.82 0.84 0.86 0.88
0.9 0.92 0.94 0.96 0.98 1 0 0.02 0.04 0.06
0.08 0.1 0.12 0.14 0.16 0.18 0.2 0.22 0.24 0.26
0.28 0.3 0.32 0.34 0.36 0.38 0.4 0.42 0.44 0.46
0.48 0.5 0.52 0.54 0.56 0.58 0.6 0.62 0.64 0.66
0.68 0.7 0.72 0.74 0.76 0.78 0.8 0.82 0.84 0.86
0.88 0.9 0.92 0.94 0.96 0.98 1 0 0.02 0.04
0.06 0.08 0.1 0.12 0.14 0.16 0.18 0.2 0.22 0.24
0.26 0.28 0.3 0.32 0.34 0.36 0.38 0.4 0.42 0.44
0.46 0.48 0.5 0.52 0.54 0.56 0.58 0.6 0.62 0.64
0.66 0.68 0.7 0.72 0.74 0.76 0.78 0.8 0.82 0.84
0.86 0.88 0.9 0.92 0.94 0.96 0.98 1 0 0.02
0.04 0.06 0.08 0.1 0.12 0.14 0.16 0.18 0.2 0.22
0.24 0.26 0.28 0.3 0.32 0.34 0.36 0.38 0.4 0.42
0.44 0.46 0.48 0.5 0.52 0.54 0.56 0.58 0.6 0.62
0.64 0.66 0.68 0.7 0.72 0.74 0.76 0.78 0.8 0.82
0.84 0.86 0.88 0.9 0.92 0.94 0.96 0.98 1 0
0.02 0.04 0.06 0.08 0.1 0.12 0.14 0.16 0.18 0.2
0.22 0.24 0.26 0.28 0.3 0.32 0.34 0.36 0.38 0.4
0.42 0.44 0.46 0.48 0.5 0.52 0.54 0.56 0.58 0.6
0.62 0.64 0.66 0.68 0.7 0.72 0.74 0.76 0.78 0.8
0.82 0.84 0.86 0.88 0.9 0.92 0.94 0.96 0.98 1
0 0.02 0.04 0.06 0.08 0.1 0.12 0.14 0.16 0.18
0.2 0.22 0.24 0.26 0.28 0.3 0.32 0.34 0.36 0.38
0.4 0.42 0.44 0.46 0.48 0.5 0.52 0.54 0.56 0.58
0.6 0.62 0.64 0.66 0.68 0.7 0.72 0.74 0.76 0.78
0.8 0.82 0.84 0.86 0.88 0.9 0.92 0.94 0.96 0.98
1 0 0.02 0.04 0.06 0.08 0.1 0.12 0.14 0.16
0.18 0.2 0.22 0.24 0.26 0.28 0.3 0.32 0.34 0.36
0.38 0.4 0.42 0.44 0.46 0.48 0.5 0.52 0.54 0.56
0.58 0.6 0.62 0.64 0.66 0.68 0.7 0.72 0.74 0.76
0.78 0.8 0.82 0.84 0.86 0.88 0.9 0.92 0.94 0.96
0.98 1 0 0.02 0.04 0.06 0.08 0.1 0.12 0.14
0.16 0.18 0.2 0.22 0.24 0.26 0.28 0.3 0.32 0.34
0.36 0.38 0.4 0.42 0.44 0.46 0.48 0.5 0.52 0.54
0.56 0.58 0.6 0.62 0.64 0.66 0.68 0.7 0.72 0.74
0.76 0.78 0.8 0.82 0.84 0.86 0.88 0.9 0.92 0.94
0.96 0.98 1 0 0.02 0.04 0.06 0.08 0.1 0.12
0.14 0.16 0.18 0.2 0.22 0.24 0.26 0.28 0.3 0.32
0.34 0.36 0.38 0.4 0.42 0.44 0.46 0.48 0.5 0.52
0.54 0.56 0.58 0.6 0.62 0.64 0.66 0.68 0.7 0.72
0.74 0.76 0.78 0.8 0.82 0.84 0.86 0.88 0.9 0.92
0.94 0.96 0.98 1 0 0.02 0.04 0.06 0.08 0.1
0.12 0.14 0.16 0.18 0.2 0.22 0.24 0.26 0.28 0.3
0.32 0.34 0.36 0.38 0.4 0.42 0.44 0.46 0.48 0.5
0.52 0.54 0.56 0.58 0.6 0.62 0.64 0.66 0.68 0.7
0.72 0.74 0.76 0.78 0.8 0.82 0.84 0.86 0.88 0.9
0.92 0.94 0.96 0.98 1 0 0.02 0.04 0.06 0.08
0.1 0.12 0.14 0.16 0.18 0.2 0.22 0.24 0.26 0.28
0.3 0.32 0.34 0.36 0.38 0.4 0.42 0.44 0.46 0.48
0.5 0.52 0.54 0.56 0.58 0.6 0.62 0.64 0.66 0.68
0.7 0.72 0.74 0.76 0.78 0.8 0.82 0.84 0.86 0.88
0.9 0.92 0.94 0.96 0.98 1 0 0.02 0.04 0.06
0.08 0.1 0.12 0.14 0.16 0.18 0.2 0.22 0.24 0.26
0.28 0.3 0.32 0.34 0.36 0.38 0.4 0.42 0.44 0.46
0.48 0.5 0.52 0.54 0.56 0.58 0.6 0.62 0.64 0.66
0.68 0.7 0.72 0.74 0.76 0.78 0.8 0.82 0.84 0.86
0.88 0.9 0.92 0.94 0.96 0.98 1 0 0.02 0.04
0.06 0.08 0.1 0.12 0.14 0.16 0.18 0.2 0.22 0.24
0.26 0.28 0.3 0.32 0.34 0.36 0.38 0.4 0.42 0.44
0.46 0.48 0.5 0.52 0.54 0.56 0.58 0.6 0.62 0.64
0.66 0.68 0.7 0.72 0.74 0.76 0.78 0.8 0.82 0.84
0.86 0.88 0.9 0.92 0.94 0.96 0.98 1 0 0.02
0.04 0.06 0.08 0.1 0.12 0.14 0.16 0.18 0.2 0.22
0.24 0.26 0.28 0.3 0.32 0.34 0.36 0.38 0.4 0.42
0.44 0.46 0.48 0.5 0.52 0.54 0.56 0.58 0.6 0.62
0.64 0.66 0.68 0.7 0.72 0.74 0.76 0.78 0.8 0.82
0.84 0.86 0.88 0.9 0.92 0.94 0.96 0.98 1 0
0.02 0.04 0.06 0.08 0.1 0.12 0.14 0.16 0.18 0.2
0.22 0.24 0.26 0.28 0.3 0.32 0.34 0.36 0.38 0.4
0.42 0.44 0.46 0.48 0.5 0.52 0.54 0.56 0.58 0.6
0.62 0.64 0.66 0.68 0.7 0.72 0.74 0.76 0.78 0.8
0.82 0.84 0.86 0.88 0.9 0.92 0.94 0.96 0.98 1
0 0.02 0.04 0.06 0.08 0.1 0.12 0.14 0.16 0.18
0.2 0.22 0.24 0.26 0.28 0.3 0.32 0.34 0.36 0.38
0.4 0.42 0.44 0.46 0.48 0.5 0.52 0.54 0.56 0.58
0.6 0.62 0.64 0.66 0.68 0.7 0.72 0.74 0.76 0.78
0.8 0.82 0.84 0.86 0.88 0.9 0.92 0.94 0.96 0.98
1 
0 0 0 0 0 0 0 0 0 0
0 0 0 0 0 0 0 0 0 0
0 0 0 0 0 0 0 0 0 0
0 0 0 0 0 0 0 0 0 0
0 0 0 0 0 0 0 0 0 0
0 0.02 0.02 0.02 0.02 0.02 0.02 0.02 0.02 0.02
0.02 0.02 0.02 0.02 0.02 0.02 0.02 0.02 0.02 0.02
0.02 0.02 0.02 0.02 0.02 0.02 0.02 0.02 0.02 0.02
0.02 0.02 0.02 0.02 0.02 0.02 0.02 0.02 0.02 0.02
0.02 0.02 0.02 0.02 0.02 0.02 0.02 0.02 0.02 0.02
0.02 0.02 0.04 0.04 0.04 0.04 0.04 0.04 0.04 0.04
0.04 0.04 0.04 0.04 0.04 0.04 0.04 0.04 0.04 0.04
0.04 0.04 0.04 0.04 0.04 0.04 0.04 0.04 0.04 0.04
0.04 0.04 0.04 0.04 0.04 0.04 0.04 0.04 0.04 0.04
0.04 0.04 0.04 0.04 0.04 0.04 0.04 0.04 0.04 0.04
0.04 0.04 0.04 0.06 0.06 0.06 0.06 0.06 0.06 0.06
0.06 0.06 0.06 0.06 0.06 0.06 0.06 0.06 0.06 0.06
0.06 0.06 0.06 0.06 0.06 0.06 0.06 0.06 0.06 0.06
0.06 0.06 0.06 0.06 0.06 0.06 0.06 0.06 0.06 0.06
0.06 0.06 0.06 0.06 0.06 0.06 0.06 0.06 0.06 0.06
0.06 0.06 0.06 0.06 0.08 0.08 0.08 0.08 0.08 0.08
0.08 0.08 0.08 0.08 0.08 0.08 0.08 0.08 0.08 0.08
0.08 0.08 0.08 0.08 0.08 0.08 0.08 0.08 0.08 0.08
0.08 0.08 0.08 0.08 0.08 0.08 0.08 0.08 0.08 0.08
0.08 0.08 0.08 0.08 0.08 0.08 0.08 0.08 0.08 0.08
0.08 0.08 0.08 0.08 0.08 0.1 0.1 0.1 0.1 0.1
0.1 0.1 0.1 0.1 0.1 0.1 0.1 0.1 0.1 0.1
0.1 0.1 0.1 0.1 0.1 0.1 0.1 0.1 0.1 0.1
0.1 0.1 0.1 0.1 0.1 0.1 0.1 0.1 0.1 0.1
0.1 0.1 0.1 0.1 0.1 0.1 0.1 0.1 0.1 0.1
0.1 0.1 0.1 0.1 0.1 0.1 0.12 0.12 0.12 0.12
0.12 0.12 0.12 0.12 0.12 0.12 0.12 0.12 0.12 0.12
0.12 0.12 0.12 0.12 0.12 0.12 0.12 0.12 0.12 0.12
0.12 0.12 0.12 0.12 0.12 0.12 0.12 0.12 0.12 0.12
0.12 0.12 0.12 0.12 0.12 0.12 0.12 0.12 0.12 0.12
0.12 0.12 0.12 0.12 0.12 0.12 0.12 0.14 0.14 0.14
0.14 0.14 0.14 0.14 0.14 0.14 0.14 0.14 0.14 0.14
0.14 0.14 0.14 0.14 0.14 0.14 0.14 0.14 0.14 0.14
0.14 0.14 0.14 0.14 0.14 0.14 0.14 0.14 0.14 0.14
0.14 0.14 0.14 0.14 0.14 0.14 0.14 0.14 0.14 0.14
0.14 0.14 0.14 0.14 0.14 0.14 0.14 0.14 0.16 0.16
0.16 0.16 0.16 0.16 0.16 0.16 0.16 0.16 0.16 0.16
0.16 0.16 0.16 0.16 0.16 0.16 0.16 0.16 0.16 0.16
0.16 0.16 0.16 0.16 0.16 0.16 0.16 0.16 0.16 0.16
0.16 0.16 0.16 0.16 0.16 0.16 0.16 0.16 0.16 0.16
0.16 0.16 0.16 0.16 0.16 0.16 0.16 0.16 0.16 0.18
0.18 0.18 0.18 0.18 0.18 0.18 0.18 0.18 0.18 0.18
0.18 0.18 0.18 0.18 0.18 0.18 0.18 0.18 0.18 0.18
0.18 0.18 0.18 0.18 0.18 0.18 0.18 0.18 0.18 0.18
0.18 0.18 0.18 0.18 0.18 0.18 0.18 0.18 0.18 0.18
0.18 0.18 0.18 0.18 0.18 0.18 0.18 0.18 0.18 0.18
0.2 0.2 0.2 0.2 0.2 0.2 0.2 0.2 0.2 0.2
0.2 0.2 0.2 0.2 0.2 0.2 0.2 0.2 0.2 0.2
0.2 0.2 0.2 0.2 0.2 0.2 0.2 0.2 0.2 0.2
0.2 0.2 0.2 0.2 0.2 0.2 0.2 0.2 0.2 0.2
0.2 0.2 0.2 0.2 0.2 0.2 0.2 0.2 0.2 0.2
0.2 0.22 0.22 0.22 0.22 0.22 0.22 0.22 0.22 0.22
0.22 0.22 0.22 0.22 0.22 0.22 0.22 0.22 0.22 0.22
0.22 0.22 0.22 0.22 0.22 0.22 0.22 0.22 0.22 0.22
0.22 0.22 0.22 0.22 0.22 0.22 0.22 0.22 0.22 0.22
0.22 0.22 0.22 0.22 0.22 0.22 0.22 0.22 0.22 0.22
0.22 0.22 0.24 0.24 0.24 0.24 0.24 0.24 0.24 0.24
0.24 0.24 0.24 0.24 0.24 0.24 0.24 0.24 0.24 0.24
0.24 0.24 0.24 0.24 0.24 0.24 0.24 0.24 0.24 0.24
0.24 0.24 0.24 0.24 0.24 0.24 0.24 0.24 0.24 0.24
0.24 0.24 0.24 0.24 0.24 0.24 0.24 0.24 0.24 0.24
0.24 0.24 0.24 0.26 0.26 0.26 0.26 0.26 0.26 0.26
0.26 0.26 0.26 0.26 0.26 0.26 0.26 0.26 0.26 0.26
0.26 0.26 0.26 0.26 0.26 0.26 0.26 0.26 0.26 0.26
0.26 0.26 0.26 0.26 0.26 0.26 0.26 0.26 0.26 0.26
0.26 0.26 0.26 0.26 0.26 0.26 0.26 0.26 0.26 0.26
0.26 0.26 0.26 0.26 0.28 0.28 0.28 0.28 0.28 0.28
0.28 0.28 0.28 0.28 0.28 0.28 0.28 0.28 0.28 0.28
0.28 0.28 0.28 0.28 0.28 0.28 0.28 0.28 0.28 0.28
0.28 0.28 0.28 0.28 0.28 0.28 0.28 0.28 0.28 0.28
0.28 0.28 0.28 0.28 0.28 0.28 0.28 0.28 0.28 0.28
0.28 0.28 0.28 0.28 0.28 0.3 0.3 0.3 0.3 0.3
0.3 0.3 0.3 0.3 0.3 0.3 0.3 0.3 0.3 0.3
0.3 0.3 0.3 0.3 0.3 0.3 0.3 0.3 0.3 0.3
0.3 0.3 0.3 0.3 0.3 0.3 0.3 0.3 0.3 0.3
0.3 0.3 0.3 0.3 0.3 0.3 0.3 0.3 0.3 0.3
0.3 0.3 0.3 0.3 0.3 0.3 0.32 0.32 0.32 0.32
0.32 0.32 0.32 0.32 0.32 0.32 0.32 0.32 0.32 0.32
0.32 0.32 0.32 0.32 0.32 0.32 0.32 0.32 0.32 0.32
0.32 0.32 0.32 0.32 0.32 0.32 0.32 0.32 0.32 0.32
0.32 0.32 0.32 0.32 0.32 0.32 0.32 0.32 0.32 0.32
0.32 0.32 0.32 0.32 0.32 0.32 0.32 0.34 0.34 0.34
0.34 0.34 0.34 0.34 0.34 0.34 0.34 0.34 0.34 0.34
0.34 0.34 0.34 0.34 0.34 0.34 0.34 0.34 0.34 0.34
0.34 0.34 0.34 0.34 0.34 0.34 0.34 0.34 0.34 0.34
0.34 0.34 0.34 0.34 0.34 0.34 0.34 0.34 0.34 0.34
0.34 0.34 0.34 0.34 0.34 0.34 0.34 0.34 0.36 0.36
0.36 0.36 0.36 0.36 0.36 0.36 0.36 0.36 0.36 0.36
0.36 0.36 0.36 0.36 0.36 0.36 0.36 0.36 0.36 0.36
0.36 0.36 0.36 0.36 0.36 0.36 0.36 0.36 0.36 0.36
0.36 0.36 0.36 0.36 0.36 0.36 0.36 0.36 0.36 0.36
0.36 0.36 0.36 0.36 0.36 0.36 0.36 0.36 0.36 0.38
0.38 0.38 0.38 0.38 0.38 0.38 0.38 0.38 0.38 0.38
0.38 0.38 0.38 0.38 0.38 0.38 0.38 0.38 0.38 0.38
0.38 0.38 0.38 0.38 0.38 0.38 0.38 0.38 0.38 0.38
0.38 0.38 0.38 0.38 0.38 0.38 0.38 0.38 0.38 0.38
0.38 0.38 0.38 0.38 0.38 0.38 0.38 0.38 0.38 0.38
0.4 0.4 0.4 0.4 0.4 0.4 0.4 0.4 0.4 0.4
0.4 0.4 0.4 0.4 0.4 0.4 0.4 0.4 0.4 0.4
0.4 0.4 0.4 0.4 0.4 0.4 0.4 0.4 0.4 0.4
0.4 0.4 0.4 0.4 0.4 0.4 0.4 0.4 0.4 0.4
0.4 0.4 0.4 0.4 0.4 0.4 0.4 0.4 0.4 0.4
0.4 0.42 0.42 0.42 0.42 0.42 0.42 0.42 0.42 0.42
0.42 0.42 0.42 0.42 0.42 0.42 0.42 0.42 0.42 0.42
0.42 0.42 0.42 0.42 0.42 0.42 0.42 0.42 0.42 0.42
0.42 0.42 0.42 0.42 0.42 0.42 0.42 0.42 0.42 0.42
0.42 0.42 0.42 0.42 0.42 0.42 0.42 0.42 0.42 0.42
0.42 0.42 0.44 0.44 0.44 0.44 0.44 0.44 0.44 0.44
0.44 0.44 0.44 0.44 0.44 0.44 0.44 0.44 0.44 0.44
0.44 0.44 0.44 0.44 0.44 0.44 0.44 0.44 0.44 0.44
0.44 0.44 0.44 0.44 0.44 0.44 0.44 0.44 0.44 0.44
0.44 0.44 0.44 0.44 0.44 0.44 0.44 0.44 0.44 0.44
0.44 0.44 0.44 0.46 0.46 0.46 0.46 0.46 0.46 0.46
0.46 0.46 0.46 0.46 0.46 0.46 0.46 0.46 0.46 0.46
0.46 0.46 0.46 0.46 0.46 0.46 0.46 0.46 0.46 0.46
0.46 0.46 0.46 0.46 0.46 0.46 0.46 0.46 0.46 0.46
0.46 0.46 0.46 0.46 0.46 0.46 0.46 0.46 0.46 0.46
0.46 0.46 0.46 0.46 0.48 0.48 0.48 0.48 0.48 0.48
0.48 0.48 0.48 0.48 0.48 0.48 0.48 0.48 0.48 0.48
0.48 0.48 0.48 0.48 0.48 0.48 0.48 0.48 0.48 0.48
0.48 0.48 0.48 0.48 0.48 0.48 0.48 0.48 0.48 0.48
0.48 0.48 0.48 0.48 0.48 0.48 0.48 0.48 0.48 0.48
0.48 0.48 0.48 0.48 0.48 0.5 0.5 0.5 0.5 0.5
0.5 0.5 0.5 0.5 0.5 0.5 0.5 0.5 0.5 0.5
0.5 0.5 0.5 0.5 0.5 0.5 0.5 0.5 0.5 0.5
0.5 0.5 0.5 0.5 0.5 0.5 0.5 0.5 0.5 0.5
0.5 0.5 0.5 0.5 0.5 0.5 0.5 0.5 0.5 0.5
0.5 0.5 0.5 0.5 0.5 0.5 0.52 0.52 0.52 0.52
0.52 0.52 0.52 0.52 0.52 0.52 0.52 0.52 0.52 0.52
0.52 0.52 0.52 0.52 0.52 0.52 0.52 0.52 0.52 0.52
0.52 0.52 0.52 0.52 0.52 0.52 0.52 0.52 0.52 0.52
0.52 0.52 0.52 0.52 0.52 0.52 0.52 0.52 0.52 0.52
0.52 0.52 0.52 0.52 0.52 0.52 0.52 0.54 0.54 0.54
0.54 0.54 0.54 0.54 0.54 0.54 0.54 0.54 0.54 0.54
0.54 0.54 0.54 0.54 0.54 0.54 0.54 0.54 0.54 0.54
0.54 0.54 0.54 0.54 0.54 0.54 0.54 0.54 0.54 0.54
0.54 0.54 0.54 0.54 0.54 0.54 0.54 0.54 0.54 0.54
0.54 0.54 0.54 0.54 0.54 0.54 0.54 0.54 0.56 0.56
0.56 0.56 0.56 0.56 0.56 0.56 0.56 0.56 0.56 0.56
0.56 0.56 0.56 0.56 0.56 0.56 0.56 0.56 0.56 0.56
0.56 0.56 0.56 0.56 0.56 0.56 0.56 0.56 0.56 0.56
0.56 0.56 0.56 0.56 0.56 0.56 0.56 0.56 0.56 0.56
0.56 0.56 0.56 0.56 0.56 0.56 0.56 0.56 0.56 0.58
0.58 0.58 0.58 0.58 0.58 0.58 0.58 0.58 0.58 0.58
0.58 0.58 0.58 0.58 0.58 0.58 0.58 0.58 0.58 0.58
0.58 0.58 0.58 0.58 0.58 0.58 0.58 0.58 0.58 0.58
0.58 0.58 0.58 0.58 0.58 0.58 0.58 0.58 0.58 0.58
0.58 0.58 0.58 0.58 0.58 0.58 0.58 0.58 0.58 0.58
0.6 0.6 0.6 0.6 0.6 0.6 0.6 0.6 0.6 0.6
0.6 0.6 0.6 0.6 0.6 0.6 0.6 0.6 0.6 0.6
0.6 0.6 0.6 0.6 0.6 0.6 0.6 0.6 0.6 0.6
0.6 0.6 0.6 0.6 0.6 0.6 0.6 0.6 0.6 0.6
0.6 0.6 0.6 0.6 0.6 0.6 0.6 0.6 0.6 0.6
0.6 0.62 0.62 0.62 0.62 0.62 0.62 0.62 0.62 0.62
0.62 0.62 0.62 0.62 0.62 0.62 0.62 0.62 0.62 0.62
0.62 0.62 0.62 0.62 0.62 0.62 0.62 0.62 0.62 0.62
0.62 0.62 0.62 0.62 0.62 0.62 0.62 0.62 0.62 0.62
0.62 0.62 0.62 0.62 0.62 0.62 0.62 0.62 0.62 0.62
0.62 0.62 0.64 0.64 0.64 0.64 0.64 0.64 0.64 0.64
0.64 0.64 0.64 0.64 0.64 0.64 0.64 0.64 0.64 0.64
0.64 0.64 0.64 0.64 0.64 0.64 0.64 0.64 0.64 0.64
0.64 0.64 0.64 0.64 0.64 0.64 0.64 0.64 0.64 0.64
0.64 0.64 0.64 0.64 0.64 0.64 0.64 0.64 0.64 0.64
0.64 0.64 0.64 0.66 0.66 0.66 0.66 0.66 0.66 0.66
0.66 0.66 0.66 0.66 0.66 0.66 0.66 0.66 0.66 0.66
0.66 0.66 0.66 0.66 0.66 0.66 0.66 0.66 0.66 0.66
0.66 0.66 0.66 0.66 0.66 0.66 0.66 0.66 0.66 0.66
0.66 0.66 0.66 0.66 0.66 0.66 0.66 0.66 0.66 0.66
0.66 0.66 0.66 0.66 0.68 0.68 0.68 0.68 0.68 0.68
0.68 0.68 0.68 0.68 0.68 0.68 0.68 0.68 0.68 0.68
0.68 0.68 0.68 0.68 0.68 0.68 0.68 0.68 0.68 0.68
0.68 0.68 0.68 0.68 0.68 0.68 0.68 0.68 0.68 0.68
0.68 0.68 0.68 0.68 0.68 0.68 0.68 0.68 0.68 0.68
0.68 0.68 0.68 0.68 0.68 0.7 0.7 0.7 0.7 0.7
0.7 0.7 0.7 0.7 0.7 0.7 0.7 0.7 0.7 0.7
0.7 0.7 0.7 0.7 0.7 0.7 0.7 0.7 0.7 0.7
0.7 0.7 0.7 0.7 0.7 0.7 0.7 0.7 0.7 0.7
0.7 0.7 0.7 0.7 0.7 0.7 0.7 0.7 0.7 0.7
0.7 0.7 0.7 0.7 0.7 0.7 0.72 0.72 0.72 0.72
0.72 0.72 0.72 0.72 0.72 0.72 0.72 0.72 0.72 0.72
0.72 0.72 0.72 0.72 0.72 0.72 0.72 0.72 0.72 0.72
0.72 0.72 0.72 0.72 0.72 0.72 0.72 0.72 0.72 0.72
0.72 0.72 0.72 0.72 0.72 0.72 0.72 0.72 0.72 0.72
0.72 0.72 0.72 0.72 0.72 0.72 0.72 0.74 0.74 0.74
0.74 0.74 0.74 0.74 0.74 0.74 0.74 0.74 0.74 0.74
0.74 0.74 0.74 0.74 0.74 0.74 0.74 0.74 0.74 0.74
0.74 0.74 0.74 0.74 0.74 0.74 0.74 0.74 0.74 0.74
0.74 0.74 0.74 0.74 0.74 0.74 0.74 0.74 0.74 0.74
0.74 0.74 0.74 0.74 0.74 0.74 0.74 0.74 0.76 0.76
0.76 0.76 0.76 0.76 0.76 0.76 0.76 0.76 0.76 0.76
0.76 0.76 0.76 0.76 0.76 0.76 0.76 0.76 0.76 0.76
0.76 0.76 0.76 0.76 0.76 0.76 0.76 0.76 0.76 0.76
0.76 0.76 0.76 0.76 0.76 0.76 0.76 0.76 0.76 0.76
0.76 0.76 0.76 0.76 0.76 0.76 0.76 0.76 0.76 0.78
0.78 0.78 0.78 0.78 0.78 0.78 0.78 0.78 0.78 0.78
0.78 0.78 0.78 0.78 0.78 0.78 0.78 0.78 0.78 0.78
0.78 0.78 0.78 0.78 0.78 0.78 0.78 0.78 0.78 0.78
0.78 0.78 0.78 0.78 0.78 0.78 0.78 0.78 0.78 0.78
0.78 0.78 0.78 0.78 0.78 0.78 0.78 0.78 0.78 0.78
0.8 0.8 0.8 0.8 0.8 0.8 0.8 0.8 0.8 0.8
0.8 0.8 0.8 0.8 0.8 0.8 0.8 0.8 0.8 0.8
0.8 0.8 0.8 0.8 0.8 0.8 0.8 0.8 0.8 0.8
0.8 0.8 0.8 0.8 0.8 0.8 0.8 0.8 0.8 0.8
0.8 0.8 0.8 0.8 0.8 0.8 0.8 0.8 0.8 0.8
0.8 0.82 0.82 0.82 0.82 0.82 0.82 0.82 0.82 0.82
0.82 0.82 0.82 0.82 0.82 0.82 0.82 0.82 0.82 0.82
0.82 0.82 0.82 0.82 0.82 0.82 0.82 0.82 0.82 0.82
0.82 0.82 0.82 0.82 0.82 0.82 0.82 0.82 0.82 0.82
0.82 0.82 0.82 0.82 0.82 0.82 0.82 0.82 0.82 0.82
0.82 0.82 0.84 0.84 0.84 0.84 0.84 0.84 0.84 0.84
0.84 0.84 0.84 0.84 0.84 0.84 0.84 0.84 0.84 0.84
0.84 0.84 0.84 0.84 0.84 0.84 0.84 0.84 0.84 0.84
0.84 0.84 0.84 0.84 0.84 0.84 0.84 0.84 0.84 0.84
0.84 0.84 0.84 0.84 0.84 0.84 0.84 0.84 0.84 0.84
0.84 0.84 0.84 0.86 0.86 0.86 0.86 0.86 0.86 0.86
0.86 0.86 0.86 0.86 0.86 0.86 0.86 0.86 0.86 0.86
0.86 0.86 0.86 0.86 0.86 0.86 0.86 0.86 0.86 0.86
0.86 0.86 0.86 0.86 0.86 0.86 0.86 0.86 0.86 0.86
0.86 0.86 0.86 0.86 0.86 0.86 0.86 0.86 0.86 0.86
0.86 0.86 0.86 0.86 0.88 0.88 0.88 0.88 0.88 0.88
0.88 0.88 0.88 0.88 0.88 0.88 0.88 0.88 0.88 0.88
0.88 0.88 0.88 0.88 0.88 0.88 0.88 0.88 0.88 0.88
0.88 0.88 0.88 0.88 0.88 0.88 0.88 0.88 0.88 0.88
0.88 0.88 0.88 0.88 0.88 0.88 0.88 0.88 0.88 0.88
0.88 0.88 0.88 0.88 0.88 0.9 0.9 0.9 0.9 0.9
0.9 0.9 0.9 0.9 0.9 0.9 0.9 0.9 0.9 0.9
0.9 0.9 0.9 0.9 0.9 0.9 0.9 0.9 0.9 0.9
0.9 0.9 0.9 0.9 0.9 0.9 0.9 0.9 0.9 0.9
0.9 0.9 0.9 0.9 0.9 0.9 0.9 0.9 0.9 0.9
0.9 0.9 0.9 0.9 0.9 0.9 0.92 0.92 0.92 0.92
0.92 0.92 0.92 0.92 0.92 0.92 0.92 0.92 0.92 0.92
0.92 0.92 0.92 0.92 0.92 0.92 0.92 0.92 0.92 0.92
0.92 0.92 0.92 0.92 0.92 0.92 0.92 0.92 0.92 0.92
0.92 0.92 0.92 0.92 0.92 0.92 0.92 0.92 0.92 0.92
0.92 0.92 0.92 0.92 0.92 0.92 0.92 0.94 0.94 0.94
0.94 0.94 0.94 0.94 0.94 0.94 0.94 0.94 0.94 0.94
0.94 0.94 0.94 0.94 0.94 0.94 0.94 0.94 0.94 0.94
0.94 0.94 0.94 0.94 0.94 0.94 0.94 0.94 0.94 0.94
0.94 0.94 0.94 0.94 0.94 0.94 0.94 0.94 0.94 0.94
0.94 0.94 0.94 0.94 0.94 0.94 0.94 0.94 0.96 0.96
0.96 0.96 0.96 0.96 0.96 0.96 0.96 0.96 0.96 0.96
0.96 0.96 0.96 0.96 0.96 0.96 0.96 0.96 0.96 0.96
0.96 0.96 0.96 0.96 0.96 0.96 0.96 0.96 0.96 0.96
0.96 0.96 0.96 0.96 0.96 0.96 0.96 0.96 0.96 0.96
0.96 0.96 0.96 0.96 0.96 0.96 0.96 0.96 0.96 0.98
0.98 0.98 0.98 0.98 0.98 0.98 0.98 0.98 0.98 0.98
0.98 0.98 0.98 0.98 0.98 0.98 0.98 0.98 0.98 0.98
0.98 0.98 0.98 0.98 0.98 0.98 0.98 0.98 0.98 0.98
0.98 0.98 0.98 0.98 0.98 0.98 0.98 0.98 0.98 0.98
0.98 0.98 0.98 0.98 0.98 0.98 0.98 0.98 0.98 0.98
1 1 1 1 1 1 1 1 1 1
1 1 1 1 1 1 1 1 1 1
1 1 1 1 1 1 1 1 1 1
1 1 1 1 1 1 1 1 1 1
1 1 1 1 1 1 1 1 1 1
1 
0.834875 2.50348 4.16863 5.82807 7.47952 9.12078 10.7496 12.364 13.9618 15.5409
17.0995 18.6357 20.1477 21.6337 23.0923 24.5217 25.9207 27.2878 28.6218 29.9216
31.1859 32.4139 33.6047 34.7573 35.8711 36.9453 37.9794 38.9729 39.9251 40.8357
41.7044 42.5308 43.3146 44.0556 44.7536 45.4085 46.02 46.5881 47.1127 47.5937
48.0311 48.4248 48.7748 49.0811 49.3436 49.5624 49.7374 49.8687 49.9562 50
0.836024 2.50692 4.17436 5.83605 7.48973 9.13316 10.7642 12.3806 13.9804 15.5615
17.1219 18.6599 20.1736 21.6613 23.1213 24.5522 25.9526 27.3209 28.6561 29.9569
31.2223 32.4512 33.6428 34.7962 35.9106 36.9855 38.0201 39.014 39.9667 40.8777
41.7467 42.5734 43.3574 44.0986 44.7968 45.4518 46.0634 46.6316 47.1563 47.6374
48.0748 48.4685 48.8185 49.1248 49.3874 49.6062 49.7812 49.9125 50 50.0437
0.838327 2.51382 4.18582 5.85204 7.51017 9.15798 10.7933 12.4138 14.0177 15.6026
17.1668 18.7084 20.2255 21.7164 23.1795 24.6133 26.0163 27.3872 28.7248 30.0277
31.2951 32.5258 33.7191 34.874 35.9898 37.0658 38.1016 39.0964 40.0499 40.9617
41.8313 42.6585 43.4431 44.1847 44.8832 45.5384 46.1503 46.7187 47.2435 47.7246
48.1621 48.5559 48.906 49.2123 49.4749 49.6937 49.8687 50 50.0875 50.1313
0.841794 2.5242 4.20309 5.8761 7.54094 9.19533 10.837 12.4639 14.0738 15.6646
17.2344 18.7814 20.3036 21.7994 23.2671 24.7052 26.1123 27.4869 28.828 30.1342
31.4045 32.638 33.8337 34.9908 36.1087 37.1865 38.2239 39.2202 40.1749 41.0878
41.9584 42.7864 43.5716 44.3138 45.0128 45.6684 46.2806 46.8493 47.3743 47.8556
48.2932 48.6871 49.0372 49.3436 49.6061 49.8249 50 50.1313 50.2188 50.2625
0.846439 2.53812 4.22621 5.90834 7.58216 9.24537 10.8957 12.5309 14.1489 15.7475
17.3249 18.879 20.4081 21.9104 23.3842 24.8281 26.2406 27.6203 28.966 30.2765
31.5508 32.7878 33.9869 35.147 36.2675 37.3478 38.3873 39.3854 40.3419 41.2562
42.128 42.9571 43.7432 44.4862 45.1858 45.8419 46.4545 47.0235 47.5488 48.0303
48.468 48.862 49.2122 49.5186 49.7812 50 50.175 50.3063 50.3938 50.4376
0.852282 2.55562 4.2553 5.94889 7.63401 9.30828 10.9694 12.6152 14.2433 15.8518
17.4386 19.0017 20.5394 22.0498 23.5313 24.9824 26.4016 27.7876 29.1391 30.455
31.7342 32.9758 34.1789 35.3427 36.4666 37.5498 38.592 39.5925 40.5509 41.467
42.3403 43.1707 43.958 44.7018 45.4022 46.059 46.6721 47.2414 47.767 48.2487
48.6866 49.0807 49.4309 49.7374 50 50.2188 50.3938 50.5251 50.6126 50.6563
0.859347 2.57679 4.29047 5.99792 7.69669 9.38435 11.0585 12.717 14.3575 15.9778
17.5759 19.15 20.6979 22.2181 23.7089 25.1686 26.5959 27.9895 29.3479 30.6702
31.9553 33.2023 34.4102 35.5785 36.7063 37.793 38.8383 39.8415 40.8024 41.7205
42.5956 43.4276 44.2161 44.961 45.6622 46.3197 46.9334 47.5031 48.029 48.511
48.9491 49.3432 49.6935 50 50.2626 50.4814 50.6564 50.7876 50.8751 50.9189
0.867666 2.60171 4.33189 6.05564 7.77046 9.47387 11.1634 12.8368 14.4917 16.126
17.7374 19.3242 20.8843 22.4159 23.9174 25.3873 26.824 28.2263 29.5929 30.9226
32.2146 33.4677 34.6813 35.8546 36.987 38.0778 39.1266 40.1329 41.0965 42.017
42.8942 43.7278 44.5177 45.2638 45.9661 46.6243 47.2385 47.8088 48.335 48.8172
49.2554 49.6496 50 50.3064 50.569 50.7878 50.9628 51.094 51.1814 51.2251
0.877275 2.63049 4.37971 6.12231 7.85566 9.57722 11.2845 12.9751 14.6466 16.2969
17.9237 19.5251 21.099 22.6438 24.1577 25.6391 27.0866 28.4989 29.8747 31.2129
32.5126 33.7728 34.9927 36.1717 37.3092 38.4045 39.4573 40.4672 41.4338 42.3569
43.2362 44.0717 44.8632 45.6106 46.3138 46.9729 47.5877 48.1584 48.6849 49.1673
49.6057 50 50.3503 50.6567 50.9193 51.138 51.3129 51.444 51.5314 51.5751
0.888218 2.66327 4.43418 6.1982 7.95265 9.69487 11.4223 13.1324 14.8228 16.4912
18.1354 19.7533 21.343 22.9026 24.4304 25.9248 27.3844 28.8079 30.194 31.5417
32.85 34.1181 35.3451 36.5304 37.6735 38.7738 39.831 40.8446 41.8145 42.7405
43.6222 44.4597 45.2528 46.0015 46.7058 47.3656 47.9811 48.5522 49.079 49.5616
50 50.3943 50.7446 51.0509 51.3133 51.5319 51.7067 51.8378 51.9252 51.9689
0.900545 2.70019 4.49552 6.28368 8.06186 9.82731 11.5774 13.3094 15.021 16.7098
18.3734 20.0098 21.617 23.1931 24.7364 26.2453 27.7184 29.1543 30.5518 31.9099
33.2277 34.5044 35.7391 36.9313 38.0805 39.1862 40.2481 41.2659 42.2393 43.1682
44.0524 44.892 45.6868 46.4368 47.1421 47.8028 48.4188 48.9903 49.5173 50
50.4384 50.8326 51.1828 51.489 51.7512 51.9697 52.1444 52.2753 52.3626 52.4062
0.914315 2.74143 4.56403 6.37913 8.18379 9.97515 11.7504 13.5069 15.2421 16.9534
18.6387 20.2956 21.9222 23.5165 25.0769 26.6017 28.0895 29.539 30.949 32.3185
33.6466 34.9326 36.1756 37.3753 38.531 39.6425 40.7094 41.7315 42.7086 43.6406
44.5274 45.369 46.1655 46.9169 47.6232 48.2846 48.9011 49.4728 50 50.4826
50.921 51.315 51.665 51.9709 52.233 52.4512 52.6257 52.7565 52.8437 52.8873
0.929595 2.7872 4.64005 6.48502 8.31903 10.1391 11.9423 13.7258 15.4869 17.2232
18.9322 20.6117 22.2595 23.8738 25.4529 26.9951 28.4989 29.9632 31.3867 32.7685
34.1077 35.4036 36.6556 37.8631 39.0258 40.1434 41.2155 42.2421 43.2229 44.1581
45.0475 45.8913 46.6894 47.442 48.1492 48.8112 49.4281 50 50.5271 51.0097
51.4478 51.8416 52.1912 52.4968 52.7585 52.9765 53.1507 53.2813 53.3683 53.4119
0.946462 2.83771 4.72394 6.60186 8.46823 10.3199 12.1538 13.967 15.7567 17.5203
19.2553 20.9593 22.6304 24.2665 25.8658 27.4267 28.9479 30.4281 31.8661 33.261